10000|155|Public
5|$|In April 2007, this {{experiment}} was repeated and a further three atoms of copernicium-283 were positively identified. The <b>adsorption</b> property was confirmed {{and indicated that}} copernicium has <b>adsorption</b> properties completely in agreement with being the heaviest member of group 12. These experiments also allowed the first experimental estimation of copernicium's boiling point: 84°C, so {{that it may be}} a gas at standard conditions.|$|E
25|$|The Polyani <b>adsorption</b> {{theory is}} a popular method for {{analyzing}} <b>adsorption</b> of various organic substances to their surface.|$|E
25|$|In {{contrast}} to pure spillover, portal site <b>adsorption</b> refers to surface diffusion to adjacent <b>adsorption</b> sites, not to non-adsorptive support surfaces.|$|E
3000|$|The {{properties}} of ZnO nanostructures are significantly influenced by surface <b>adsorptions,</b> {{which have been}} attracting great attention because the surface absorptions sometime disturb the fluorescence, field emission, and field effect transistors [30 – 32]. In general, the changes of properties caused by surface energy band bending, induced by surface <b>adsorptions.</b> As shown in Fig. 4, GO [...]...|$|R
5000|$|<b>Adsorptions</b> {{occur only}} on {{well-defined}} {{sites of the}} sample surface (one per molecule) ...|$|R
30|$|The {{nonlinear}} model {{provided a}} good fit to the experimental data as the calculated equilibrium <b>adsorptions</b> were shown {{to be in good}} agreement with their experimental counterparts.|$|R
25|$|At {{the maximum}} <b>adsorption,</b> only a {{monolayer}} is formed. <b>Adsorption</b> only occurs on localized {{sites on the}} surface, not with other adsorbates.|$|E
25|$|<b>Adsorption</b> and reactivity: Physical <b>adsorption</b> and {{chemical}} reactions occur {{at or near}} surface atoms or molecules. These phenomena are thus sensitive to the density of nodes.|$|E
25|$|The Gibbs <b>adsorption</b> {{isotherm}} is {{an equation}} {{which could be}} considered an <b>adsorption</b> isotherm that connects surface tension of a solution with the concentration of the solute.|$|E
30|$|The pseudo-kinetic {{models are}} not in good {{agreement}} with the pre-equilibrium times of <b>adsorptions,</b> but the prediction of the second-order model shows a better convergence at equilibrium time rather than the first-order model.|$|R
40|$|We {{simulate}} {{the formation of}} experimentally observed trapezoidal hillocks on etched Si(110) surfaces, describing their generic geometrical shape and analyzing the relative stability and/or reactivity of the key surface sites. In our model, the hillocks are stabilized by Cu impurities in the etchant adsorbing {{on the surface and}} acting as pinning agents. A model of random <b>adsorptions</b> will not result in hillock formation since a single impurity is easily removed from the surface. Instead a whole cluster of Cu atoms is needed as a mask to stabilize a hillock. Therefore we propose and analyze mechanisms that drive correlated <b>adsorptions</b> and lead to stable Cu clusters. Peer reviewe...|$|R
3000|$|... g) {{applied to}} {{determine}} the difficult degree of the electron transfer and the conductivity change of OH-SWCNT was also taken into consideration. As for the <b>adsorptions</b> of SOF 2, SO 2 F 2, and CF 4, the E [...]...|$|R
25|$|Oxygen has {{historically}} been obtained by fractional distillation of liquid air, but is increasingly obtained by non-cryogenic technologies such as pressure swing <b>adsorption</b> (PSA) and vacuum swing <b>adsorption</b> (VSA) technologies.|$|E
25|$|Carbon dioxide can be {{captured}} out of air or fossil fuel power plant flue gas using <b>adsorption</b> (or carbon scrubbing), membrane gas separation, or <b>adsorption</b> technologies. Amines {{are the leading}} carbon scrubbing technology.|$|E
25|$|Carbon dioxide can be {{separated}} out of air or flue gas with absorption, <b>adsorption,</b> or membrane gas separation technologies. Absorption, or carbon scrubbing, with amines {{is currently the}} dominant capture technology. Membrane and <b>adsorption</b> technologies {{are still in the}} developmental research stages, initiating primary pilot plants in the near future. Metal-Organic Frameworks (MOFs) are a novel class of materials that offer promise for carbon capture using <b>adsorption</b> technologies.|$|E
3000|$|... ad {{and shorter}} D for the <b>adsorptions</b> of {{adsorbate}} with OH-SWCNT {{compared with those}} with intrinsic SWCNT indicate that the sensitivity of OH-SWCNT to these gases is better than that of SWCNT without OH group. Additionally, the energy gap (E [...]...|$|R
40|$|Porous nanostructured {{materials}} have {{attracted much attention}} recently due to their potential application {{in the field of}} catalysis, sensing and <b>adsorptions.</b> General ways for the preparation of meso-and macro- porous structured single/mixed metal oxides have been developed in this work, including hydrothermal method to synthesize mesoporous transition metal oxides (TMOs) and self-rising approach to obtain macroporous TMOs. 1...|$|R
30|$|<b>Adsorptions</b> {{of single}} solute, Pb(II) onto {{prepared}} AC {{were carried out}} and the obtained equilibrium data were fitted to equilibrium models to evaluate the relative suitability of the prepared adsorbents. Then, {{the performance of the}} best AC was selected to evaluate and compare with the relative affinity for developing a selectivity order over a range of concentration.|$|R
25|$|Cyclotrimerization {{is often}} used to link {{tetrahedral}} monomers to create CMPs. CMPs that are synthesized via cyano cyclotrimerization exhibit narrow micropore size distribution, high enthalpies of H2 <b>adsorption</b> and fast selective gas <b>adsorption.</b>|$|E
25|$|<b>Adsorption</b> {{is present}} in many natural, physical, {{biological}} and chemical systems and is widely used in industrial applications such as heterogeneous catalysts, activated charcoal, capturing and using waste heat to provide cold water for air conditioning and other process requirements (<b>adsorption</b> chillers), synthetic resins, increasing storage capacity of carbide-derived carbons and water purification. <b>Adsorption,</b> ion exchange and chromatography are sorption processes in which certain adsorbates are selectively transferred from the fluid phase {{to the surface of}} insoluble, rigid particles suspended in a vessel or packed in a column. Pharmaceutical industry applications, which use <b>adsorption</b> as a means to prolong neurological exposure to specific drugs or parts thereof, are lesser known.|$|E
25|$|<b>Adsorption</b> of {{molecular}} hydrogen in MOFs is physisorptive. Since molecular hydrogen only has two electrons, dispersion forces are weak, typically 4-7 kJ/mol, and are only sufficient for <b>adsorption</b> at temperatures below 298 K.|$|E
40|$|ABSTRACT: Robust catechol-functionalized porous organic {{polymers}} (POPs) with tunable porosities (560 − 1050 m 2 /g) and {{degrees of}} functionalization were synthesized using a cobalt-catalyzed acetylene trimerization (CCAT) strategy. Post-syn-thesis metalation {{can be readily}} carried out {{with a wide range}} of metal precursors (CuII, MgII, and MnII salts and complexes), resulting in metalated POPs with enhanced heat of hydrogen <b>adsorptions</b> compared to the starting nonmetalated materials...|$|R
40|$|We {{investigate}} ambipolar to unipolar transition by {{the effect}} of ambient air on the carbon nanotube field-effect transistor. A unipolar transport property of the double-walled nanotube field-effect transistor and its conversion from ambipolar behavior are observed. We suggest that <b>adsorptions</b> of oxygen molecules, whose lowest-unoccupied-molecular-orbital state is around the midgap of the carbon nanotube, could suppress the electron channel formation and, consequently, result in the unipolar transport behavior. open 343...|$|R
40|$|Nanographite systems, where {{graphene}} sheets of {{the orders of}} the nanometer size are stacked, show novel magnetic properties, such as, spin-glass like behaviors, and the change of ESR line widths while gas <b>adsorptions.</b> Recently, {{it has been found}} that magnetic moments decrease with the decrease of the interlayer distance while water molecules are attached physically. In this paper, we consider the mechanisms of antiferromagnetism using the Hubbard-type model [...] ...|$|R
25|$|<b>Adsorption</b> of {{molecules}} onto polymer surfaces {{is central to}} a number of applications, including development of non-stick coatings and in various biomedical devices. Polymers may also be adsorbed to surfaces through polyelectrolyte <b>adsorption.</b>|$|E
25|$|<b>Adsorption</b> onto tissue or {{the surface}} of viruses and its {{electron}} density are the bases of phosphotungstic acids action as a negative stain. This electron density arises from {{the presence of the}} 12 tungsten atoms which each have an atomic number of 74. The mechanism of the <b>adsorption</b> onto tissue has been proposed as being electrostatic rather than involving hydrogen bonding, as <b>adsorption</b> is not affected by pH.|$|E
25|$|Currently, {{capture of}} carbon dioxide is {{performed}} {{on a large scale}} by absorption {{of carbon dioxide}} onto various amine-based solvents. Other techniques are currently being investigated, such as pressure swing <b>adsorption,</b> temperature swing <b>adsorption,</b> gas separation membranes, cryogenics and flue capture.|$|E
40|$|A silicalite- 1 nanophase {{material}} with an elementary particle size of 18 - 100 nm is synthesized from clear solution and isolated and purified using supercentrifugation. The nanopowder is characterized in detail using scanning electron microscopy, high-resolution transmission electron microscopy, attenuated force microscopy, Si- 29 magic angle spinning NMR, C- 13 cross polarization magic angle spinning NMR, X-ray diffraction, dinitrogen physisorption, and thermogravimetric analysis and compared with micrometer-sized silicalite- 1. The nanosized and micrometer-sized materials have many common properties including the refined {{structure and the}} nature and concentrations of tetrapropylammonium species incorporated during the synthesis. Unique properties of the nanophase are a splitting of the characteristic framework vibration at 550 cm(- 1) into a doublet at 555 and 570 cm(- 1), {{a high concentration of}} defect sites, and a strain in the crystallites along the "a" crystallographic direction. The nanophase exhibits a two-stage dinitrogen physisorption in the low-pressure region, ascribed to <b>adsorptions</b> in micropores created by the stacking of the nanoparticles in addition to <b>adsorptions</b> in the intracrystalline micropores. status: publishe...|$|R
40|$|Some {{practical}} considerations on {{the sample}} treatment and GC/MS analysis of neurochemically Important indoleaminee and their metabollcally related compounds art presented. Sptclal emphasis is placsd upon {{the processing of}} plcomole amount of such compounds {{in order to minimize}} sample <b>adsorptions</b> and/or losses at the various steps of the analytical procedure, including the dertvatlzatlon step and the GC/MS Interface. Some of the limitations of TMS derivatives for indoleamlne analysis are also discussed. Peer reviewe...|$|R
40|$|A {{theoretical}} {{study is}} presented {{dealing with the}} immobilization of two enzymes into a porous solid support. The developed model basically {{takes into account the}} interplay between restricted diffusions of two enzymes within intraparticle void space and their competitive <b>adsorptions</b> onto available functional sites on the interior surfaces. Simulations have shown that parameters such as binding rates of enzymes, initial bulk concentration ratio, pellet size and impregnating time have significant influence on the eventual distribution of two enzymes within the porous solid supports...|$|R
25|$|Pressure swing <b>adsorption.</b>|$|E
25|$|Due to {{its high}} degree of microporosity, just one gram of {{activated}} carbon has a surface area in excess of , as determined by gas <b>adsorption.</b> An activation level sufficient for useful application may be attained solely from high surface area; however, further chemical treatment often enhances <b>adsorption</b> properties.|$|E
25|$|<b>Adsorption</b> is the {{adhesion}} of atoms, ions or molecules from a gas, liquid or {{dissolved solid}} to a surface. This process creates {{a film of}} the adsorbate {{on the surface of}} the adsorbent. This process differs from absorption, in which a fluid (the absorbate) is dissolved by or permeates a liquid or solid (the absorbent), respectively. <b>Adsorption</b> is a surface-based process while absorption involves the whole volume of the material. The term sorption encompasses both processes, while desorption is the reverse of it. <b>Adsorption</b> is a surface phenomenon.|$|E
40|$|Wettability {{has been}} {{recognized}} as one of the most important properties of membranes for both fundamental and practical applications. Water <b>adsorptions</b> were used to evaluate the wetting behavior of the polyethyleneterephthalate (PET) track membranes. The experimental results revealed that the wettablity and contact angle of the PET track membranes were significantly affected by autoclaving. The steam sterilization method increases the hydrophobicity of the membrane surface. The interaction sterilized membrane with air increases surface wetting ability by means of the formation of hydroxyl groups...|$|R
30|$|We {{developed}} TiOPDA-TiO 2 organic-inorganic hybrid superlattice films by MLD {{combined with}} ALD. In the MLD process, TiOPDA organic layers were grown under vacuum by repeated sequential <b>adsorptions</b> of 2, 4 -hexadiyne- 1, 6 -diol and titanium tetrachloride with UV polymerization. In the ALD process, TiO 2 inorganic nanolayers were deposited {{at the same}} chamber using alternating surface-saturating reactions of titanium chloride and water. The TiOPDA-TiO 2 nanohybrid thin films that were prepared exhibit good thermal and mechanical stability, large-scale uniformity, and sharp interfaces.|$|R
40|$|Novel {{types of}} {{microporous}} material {{are required for}} chemoselective <b>adsorptions,</b> separations and heterogeneous catalysis. This concept article describes recent research directed towards the synthesis of polymeric materials that possess microporosity that is intrinsic to their molecular structures. These polymers (PIMs) can exhibit analogous behaviour to that of conventional microporous materials, but, in addition, may be processed into convenient forms for use as membranes. The excellent performance of these membranes for gas separation and pervaporation illustrates the unique character of PIMs and suggests immediate technological applications...|$|R
